Program Version,EnergyPlus, Version 22.1.0-ed759b17ee, YMD=2022.11.17 16:35
1,5,Environment Title[],Latitude[deg],Longitude[deg],Time Zone[],Elevation[m]
2,8,Day of Simulation[],Month[],Day of Month[],DST Indicator[1=yes 0=no],Hour[],StartMinute[],EndMinute[],DayType
3,5,Cumulative Day of Simulation[],Month[],Day of Month[],DST Indicator[1=yes 0=no],DayType  ! When Daily Meters Requested
4,2,Cumulative Days of Simulation[],Month[]  ! When Monthly Meters Requested
5,1,Cumulative Days of Simulation[] ! When Run Period Meters Requested
6,1,Calendar Year of Simulation[] ! When Annual Meters Requested
12,9,Electricity:Facility [J] !Monthly [Value,Min,Day,Hour,Minute,Max,Day,Hour,Minute]
3600,9,NaturalGas:Facility [J] !Monthly [Value,Min,Day,Hour,Minute,Max,Day,Hour,Minute]
7326,9,DistrictCooling:Facility [J] !Monthly [Value,Min,Day,Hour,Minute,Max,Day,Hour,Minute]
7375,9,DistrictHeating:Facility [J] !Monthly [Value,Min,Day,Hour,Minute,Max,Day,Hour,Minute]
End of Data Dictionary
1,RUN PERIOD 1,  41.78, -87.75,  -6.00, 186.00
4,31, 1
12,312285762815.99146,31019795.76366852, 3, 3,10,103461334.61164492,19,13,40
3600,126605854374.36334,4759976.478470754, 1, 1,10,64259682.459355175, 1,12,10
7326,2971104895.291727,0.0, 1, 1,10,79163399.96147294, 2,20,60
7375,1985562280166.6638,11244557.284126073, 2,22,10,798528013.0910163,30, 7,10
4,59, 2
12,281158393113.5603,99999999999999.0, 3, 3,10,103980531.01530395,24,14,60
3600,114353674918.78003,99999999999999.0, 1, 1,10,-99999999999999.0, 1,12,10
7326,5035285654.392801,99999999999999.0, 1, 1,10,137659169.63451943,23,15,60
7375,1450937021023.945,99999999999999.0, 2,22,10,806018384.5918671, 3,20,40
4,90, 3
12,312314905360.4277,30947634.535439204,13, 3,10,105032321.81108844,15,14,30
3600,126605854374.36334,99999999999999.0, 1, 1,10,-99999999999999.0, 1,12,10
7326,47826635186.822975,99999999999999.0, 1, 1,10,282029532.5068397,14,16,10
7375,1040601836708.9757,10760295.391022451,12,22,10,-99999999999999.0, 3,20,40
4,120, 4
12,297076436751.3916,30936005.60737175,27, 4,30,109991067.05077906, 7,16,40
3600,122521794555.83557,99999999999999.0, 1, 1,10,-99999999999999.0, 1,12,10
7326,157617124452.86548,99999999999999.0, 1, 1,10,379389955.98655593, 7,16,60
7375,498006022762.76654,10206217.035698686, 2,22,10,-99999999999999.0, 3,20,40
4,151, 5
12,314869633560.3677,30925991.441562273,31, 4,50,110630201.04989088, 9,14,60
3600,126605854374.36334,99999999999999.0, 1, 1,10,-99999999999999.0, 1,12,10
7326,266591886375.26355,99999999999999.0, 1, 1,10,599155829.8501089, 9,13,60
7375,320714324245.4082,6043001.433569429, 9,17,10,-99999999999999.0, 3,20,40
4,181, 6
12,315524554913.4103,30908332.892170973, 2, 5,60,116301637.14842266,14,17,30
3600,122521794555.83557,99999999999999.0, 1, 1,10,-99999999999999.0, 1,12,10
7326,1160952944815.9543,99999999999999.0, 1, 1,10,917315513.1844354,13,16,10
7375,164693065976.1466,280180.5433237293,19, 2,10,-99999999999999.0, 3,20,40
4,212, 7
12,280759686440.83307,29549695.9436336,28, 4,60,-99999999999999.0,14,17,30
3600,126605854374.36334,99999999999999.0, 1, 1,10,-99999999999999.0, 1,12,10
7326,1694487881324.8347,99999999999999.0, 1, 1,10,984505029.1312035,24,10,60
7375,130756070271.34914,256434.4036065789,25, 2,10,-99999999999999.0, 3,20,40
4,243, 8
12,283311027577.4768,99999999999999.0,28, 4,60,-99999999999999.0,14,17,30
3600,126605854374.36334,99999999999999.0, 1, 1,10,-99999999999999.0, 1,12,10
7326,1736670416503.2646,99999999999999.0, 1, 1,10,1060999151.6016828, 1,17,30
7375,148595393655.19144,99999999999999.0,25, 2,10,-99999999999999.0, 3,20,40
4,273, 9
12,284632730621.535,99999999999999.0,28, 4,60,-99999999999999.0,14,17,30
3600,122521794555.83557,99999999999999.0, 1, 1,10,-99999999999999.0, 1,12,10
7326,1217371917425.2102,99999999999999.0, 1, 1,10,1169248117.0516312, 6,14,50
7375,182308732566.87088,99999999999999.0,25, 2,10,-99999999999999.0, 3,20,40
4,304,10
12,283345525811.74774,99999999999999.0,28, 4,60,-99999999999999.0,14,17,30
3600,126605854374.36334,99999999999999.0, 1, 1,10,-99999999999999.0, 1,12,10
7326,356599633521.9242,99999999999999.0, 1, 1,10,-99999999999999.0, 6,14,50
7375,443897965210.4065,99999999999999.0,25, 2,10,-99999999999999.0, 3,20,40
4,334,11
12,272644780792.42593,99999999999999.0,28, 4,60,-99999999999999.0,14,17,30
3600,122521794555.83557,99999999999999.0, 1, 1,10,-99999999999999.0, 1,12,10
7326,93212584496.9654,99999999999999.0, 1, 1,10,-99999999999999.0, 6,14,50
7375,730706367244.3115,99999999999999.0,25, 2,10,-99999999999999.0, 3,20,40
4,365,12
12,280244400622.4991,99999999999999.0,28, 4,60,-99999999999999.0,14,17,30
3600,126605854374.36334,99999999999999.0, 1, 1,10,-99999999999999.0, 1,12,10
7326,807312503.5064259,99999999999999.0, 1, 1,10,-99999999999999.0, 6,14,50
7375,1555537127107.9539,99999999999999.0,25, 2,10,-99999999999999.0, 3,20,40
End of Data
 Number of Records Written=          48
