Program Version,EnergyPlus, Version 22.1.0-ed759b17ee, YMD=2022.11.29 20:03
1,5,Environment Title[],Latitude[deg],Longitude[deg],Time Zone[],Elevation[m]
2,8,Day of Simulation[],Month[],Day of Month[],DST Indicator[1=yes 0=no],Hour[],StartMinute[],EndMinute[],DayType
3,5,Cumulative Day of Simulation[],Month[],Day of Month[],DST Indicator[1=yes 0=no],DayType  ! When Daily Meters Requested
4,2,Cumulative Days of Simulation[],Month[]  ! When Monthly Meters Requested
5,1,Cumulative Days of Simulation[] ! When Run Period Meters Requested
6,1,Calendar Year of Simulation[] ! When Annual Meters Requested
12,9,Electricity:Facility [kWh] !Monthly [Value,Min,Day,Hour,Minute,Max,Day,Hour,Minute]
3600,9,NaturalGas:Facility [therm] !Monthly [Value,Min,Day,Hour,Minute,Max,Day,Hour,Minute]
7326,9,DistrictCooling:Facility [ton-hr] !Monthly [Value,Min,Day,Hour,Minute,Max,Day,Hour,Minute]
7375,9,DistrictHeating:Facility [kBtu] !Monthly [Value,Min,Day,Hour,Minute,Max,Day,Hour,Minute]
End of Data Dictionary
1,RUN PERIOD 1,  41.78, -87.75,  -6.00, 186.00
4,31, 1
12,86746.114623500471,8.6166168276403141, 3, 3,10,28.739282605753502,19,13,40
3600,1200.7932258136491,4.5145996910055865E-002, 1, 1,10,0.60947095828575415, 1,12,10
7326,234.67182882314847,0.0000000000000000, 1, 1,10,6.2526973969369521, 2,20,60
7375,1883206.5446240723,10.664900356129374, 2,22,10,757.36389401617441,30, 7,10
4,59, 2
12,78099.616122298554,27777799.999999721, 3, 3,10,28.883503944369100,24,14,60
3600,1084.5874297671692,948449.99999999045, 1, 1,10,-948449.99999999045, 1,12,10
7326,397.71052682651907,7898469.9999999208, 1, 1,10,10.872968215831627,23,15,60
7375,1376141.2175901607,94844999.999999046, 2,22,10,764.46813686615633, 3,20,40
4,90, 3
12,86754.209781208876,8.5965720259852301,13, 3,10,29.175668288040523,15,14,30
3600,1200.7932258136491,948449.99999999045, 1, 1,10,-948449.99999999045, 1,12,10
7326,3777.5724322406568,7898469.9999999208, 1, 1,10,22.276018016192982,14,16,10
7375,986958.81202662806,10.205602163615243,12,22,10,-94844999.999999046, 3,20,40
4,120, 4
12,82521.298447928057,8.5933417656045101,27, 4,30,30.553098623231303, 7,16,40
3600,1162.0579604648224,948449.99999999045, 1, 1,10,-948449.99999999045, 1,12,10
7326,12449.341289772245,7898469.9999999208, 1, 1,10,29.966001856611324, 7,16,60
7375,472333.81228934595,9.6800865475084183, 2,22,10,-94844999.999999046, 3,20,40
4,151, 5
12,87463.857071131803,8.5905600506542843,31, 4,50,30.730635987236585, 9,14,60
3600,1200.7932258136491,948449.99999999045, 1, 1,10,-948449.99999999045, 1,12,10
7326,21056.680167784278,7898469.9999999208, 1, 1,10,47.324143473961890, 9,13,60
7375,304181.50083055743,5.7314847096689254, 9,17,10,-94844999.999999046, 3,20,40
4,181, 6
12,87645.779814737281,8.5856548941214683, 2, 5,60,32.306036163814547,14,17,30
3600,1162.0579604648224,948449.99999999045, 1, 1,10,-948449.99999999045, 1,12,10
7326,91697.520060404713,7898469.9999999208, 1, 1,10,72.453890614218665,13,16,10
7375,156203.13842507623,0.26573723631539103,19, 2,10,-94844999.999999046, 3,20,40
4,212, 7
12,77988.864180161720,8.2082554398306549,28, 4,60,-27777799.999999721,14,17,30
3600,1200.7932258136491,948449.99999999045, 1, 1,10,-948449.99999999045, 1,12,10
7326,133838.61696007766,7898469.9999999208, 1, 1,10,77.760834374419375,24,10,60
7375,124015.59484886109,0.24321521010065977,25, 2,10,-94844999.999999046, 3,20,40
4,243, 8
12,78697.570618416343,27777799.999999721,28, 4,60,-27777799.999999721,14,17,30
3600,1200.7932258136491,948449.99999999045, 1, 1,10,-948449.99999999045, 1,12,10
7326,137170.39184638541,7898469.9999999208, 1, 1,10,83.802699689513432, 1,17,30
7375,140935.30111226632,94844999.999999046,25, 2,10,-94844999.999999046, 3,20,40
4,273, 9
12,79064.710646588734,27777799.999999721,28, 4,60,-27777799.999999721,14,17,30
3600,1162.0579604648224,948449.99999999045, 1, 1,10,-948449.99999999045, 1,12,10
7326,96153.755686254997,7898469.9999999208, 1, 1,10,92.352711750887977, 6,14,50
7375,172910.71740304868,94844999.999999046,25, 2,10,-94844999.999999046, 3,20,40
4,304,10
12,78707.153468935663,27777799.999999721,28, 4,60,-27777799.999999721,14,17,30
3600,1200.7932258136491,948449.99999999045, 1, 1,10,-948449.99999999045, 1,12,10
7326,28165.915073839125,7898469.9999999208, 1, 1,10,-7898469.9999999208, 6,14,50
7375,421015.02510381001,94844999.999999046,25, 2,10,-94844999.999999046, 3,20,40
4,334,11
12,75734.721918958487,27777799.999999721,28, 4,60,-27777799.999999721,14,17,30
3600,1162.0579604648224,948449.99999999045, 1, 1,10,-948449.99999999045, 1,12,10
7326,7362.3680227174627,7898469.9999999208, 1, 1,10,-7898469.9999999208, 6,14,50
7375,693038.45401286730,94844999.999999046,25, 2,10,-94844999.999999046, 3,20,40
4,365,12
12,77845.729116116549,27777799.999999721,28, 4,60,-27777799.999999721,14,17,30
3600,1200.7932258136491,948449.99999999045, 1, 1,10,-948449.99999999045, 1,12,10
7326,63.765335895703991,7898469.9999999208, 1, 1,10,-7898469.9999999208, 6,14,50
7375,1475349.1882055388,94844999.999999046,25, 2,10,-94844999.999999046, 3,20,40
End of Data
 Number of Records Written=          48
